% Model:              7_Albertin_Schegg_P1_2_Durchflussmessung_2D.mph
% Version:            COMSOL 6.2.0.290
% Date:               Dec 8 2024, 22:14
% Table:              Accumulated Probe Table 2 - 
% Material Switch 1 index                         v_Wasser (m/s)                                    Temperature (degC), Sensor_1_Aluminium            Temperature (degC), Sensor_2_Aluminium            Temperature (degC), Sensor_1_Glas                 Temperature (degC), Sensor_2_Glas
1                                                 0.1                                               20.212440354753404                                20.455844311445258                                20.212440354753404                                20.455844311445258
1                                                 0.11                                              20.20566148800827                                 20.441569175677362                                20.20566148800827                                 20.441569175677362
1                                                 0.12000000000000001                               20.199588290325195                                20.42885994614305                                 20.199588290325195                                20.42885994614305
1                                                 0.13                                              20.194101352269026                                20.417454219044288                                20.194101352269026                                20.417454219044288
1                                                 0.14                                              20.189096254831764                                20.4070951804455                                  20.189096254831764                                20.4070951804455
1                                                 0.15000000000000002                               20.18450369761379                                 20.39763740149553                                 20.18450369761379                                 20.39763740149553
1                                                 0.16                                              20.18026268537405                                 20.3889458081962                                  20.18026268537405                                 20.3889458081962
1                                                 0.17                                              20.176327830306548                                20.380925630222215                                20.176327830306548                                20.380925630222215
1                                                 0.18                                              20.172666947283822                                20.37351134420619                                 20.172666947283822                                20.37351134420619
1                                                 0.19                                              20.16924658002876                                 20.366630130213974                                20.16924658002876                                 20.366630130213974
1                                                 0.2                                               20.16603591991216                                 20.360208021599735                                20.16603591991216                                 20.360208021599735
1                                                 0.21000000000000002                               20.16301433556665                                 20.354193238489074                                20.16301433556665                                 20.354193238489074
1                                                 0.22                                              20.160158923623445                                20.348525159903293                                20.160158923623445                                20.348525159903293
1                                                 0.23                                              20.15745540824491                                 20.343185376669545                                20.15745540824491                                 20.343185376669545
1                                                 0.24000000000000002                               20.154884297627827                                20.338113220529635                                20.154884297627827                                20.338113220529635
1                                                 0.25                                              20.152434598232688                                20.333284122648077                                20.152434598232688                                20.333284122648077
1                                                 0.26                                              20.150094156620245                                20.328678905501263                                20.150094156620245                                20.328678905501263
1                                                 0.27                                              20.14785554667881                                 20.32426429806732                                 20.14785554667881                                 20.32426429806732
1                                                 0.28                                              20.145712827028017                                20.320041392407436                                20.145712827028017                                20.320041392407436
1                                                 0.29000000000000004                               20.14366117209075                                 20.316002059932696                                20.14366117209075                                 20.316002059932696
1                                                 0.30000000000000004                               20.14169211548486                                 20.312133210373364                                20.14169211548486                                 20.312133210373364
1                                                 0.31                                              20.139800334237066                                20.308414667061367                                20.139800334237066                                20.308414667061367
1                                                 0.32                                              20.13798089275448                                 20.30484305257316                                 20.13798089275448                                 20.30484305257316
1                                                 0.33                                              20.136230194948954                                20.301416587574934                                20.136230194948954                                20.301416587574934
1                                                 0.33999999999999997                               20.13454300795684                                 20.298114339047164                                20.13454300795684                                 20.298114339047164
1                                                 0.35                                              20.132914080161296                                20.29491646802343                                 20.132914080161296                                20.29491646802343
1                                                 0.36                                              20.13133882058931                                 20.291817970351733                                20.13133882058931                                 20.291817970351733
1                                                 0.37                                              20.12981456475868                                 20.288811748199905                                20.12981456475868                                 20.288811748199905
1                                                 0.38                                              20.12833801573403                                 20.28588721079226                                 20.12833801573403                                 20.28588721079226
1                                                 0.39                                              20.126905218409334                                20.283039644985028                                20.126905218409334                                20.283039644985028
1                                                 0.4                                               20.125515103971274                                20.280265472030667                                20.125515103971274                                20.280265472030667
1                                                 0.41000000000000003                               20.12416675359542                                 20.27756963296802                                 20.12416675359542                                 20.27756963296802
1                                                 0.42000000000000004                               20.122858686331053                                20.274958405634248                                20.122858686331053                                20.274958405634248
1                                                 0.43000000000000005                               20.121588337807978                                20.272414340021722                                20.121588337807978                                20.272414340021722
1                                                 0.44000000000000006                               20.12035036646408                                 20.269925136160712                                20.12035036646408                                 20.269925136160712
1                                                 0.45000000000000007                               20.119143443707067                                20.267487219347988                                20.119143443707067                                20.267487219347988
1                                                 0.45999999999999996                               20.11796574046483                                 20.265098765179733                                20.11796574046483                                 20.265098765179733
1                                                 0.47                                              20.11681612739715                                 20.262763282679206                                20.11681612739715                                 20.262763282679206
1                                                 0.48                                              20.115694277955544                                20.260482914707                                   20.115694277955544                                20.260482914707
1                                                 0.49                                              20.11459781704695                                 20.258250892568388                                20.11459781704695                                 20.258250892568388
1                                                 0.5                                               20.11352728218423                                 20.256072888076975                                20.11352728218423                                 20.256072888076975
1                                                 0.51                                              20.112481486623263                                20.253949408530854                                20.112481486623263                                20.253949408530854
1                                                 0.52                                              20.111457222793746                                20.251870719524955                                20.111457222793746                                20.251870719524955
1                                                 0.53                                              20.11045385305588                                 20.249834146797077                                20.11045385305588                                 20.249834146797077
1                                                 0.54                                              20.109470641107457                                20.247842836815728                                20.109470641107457                                20.247842836815728
1                                                 0.55                                              20.108505882400916                                20.245890710775985                                20.108505882400916                                20.245890710775985
1                                                 0.56                                              20.10755967802399                                 20.24398530206425                                 20.10755967802399                                 20.24398530206425
1                                                 0.5700000000000001                                20.10663102790474                                 20.242129407252104                                20.10663102790474                                 20.242129407252104
1                                                 0.58                                              20.105721405614766                                20.240329044446355                                20.105721405614766                                20.240329044446355
1                                                 0.59                                              20.104828585839932                                20.23858002037073                                 20.104828585839932                                20.23858002037073
1                                                 0.6                                               20.103949910139562                                20.236861603299623                                20.103949910139562                                20.236861603299623
1                                                 0.61                                              20.103084489742404                                20.235171618485612                                20.103084489742404                                20.235171618485612
1                                                 0.62                                              20.102231795889033                                20.23351141414287                                 20.102231795889033                                20.23351141414287
1                                                 0.63                                              20.101390935026004                                20.23188090463715                                 20.101390935026004                                20.23188090463715
1                                                 0.64                                              20.10056195440428                                 20.23027893934639                                 20.10056195440428                                 20.23027893934639
1                                                 0.65                                              20.09974397750686                                 20.228705347310967                                20.09974397750686                                 20.228705347310967
1                                                 0.66                                              20.0989372262032                                  20.22716471993455                                 20.0989372262032                                  20.22716471993455
1                                                 0.67                                              20.098141964691983                                20.225658753862536                                20.098141964691983                                20.225658753862536
1                                                 0.6799999999999999                                20.097358268968076                                20.22419984744135                                 20.097358268968076                                20.22419984744135
1                                                 0.69                                              20.096583991432063                                20.22277178946911                                 20.096583991432063                                20.22277178946911
1                                                 0.7                                               20.095818711179106                                20.22137620952268                                 20.095818711179106                                20.22137620952268
1                                                 0.71                                              20.095062112562825                                20.22000860642369                                 20.095062112562825                                20.22000860642369
1                                                 0.72                                              20.09431277524249                                 20.21865906005163                                 20.09431277524249                                 20.21865906005163
1                                                 0.73                                              20.093570667268118                                20.217333886520326                                20.093570667268118                                20.217333886520326
1                                                 0.74                                              20.092836951675547                                20.21604679698597                                 20.092836951675547                                20.21604679698597
1                                                 0.75                                              20.092111147931096                                20.214794994057943                                20.092111147931096                                20.214794994057943
1                                                 0.76                                              20.091392720010262                                20.213569960510444                                20.091392720010262                                20.213569960510444
1                                                 0.77                                              20.090680216877896                                20.21236306615065                                 20.090680216877896                                20.21236306615065
1                                                 0.78                                              20.08997363418715                                 20.211180921548415                                20.08997363418715                                 20.211180921548415
1                                                 0.79                                              20.089272301329803                                20.210014889467683                                20.089272301329803                                20.210014889467683
1                                                 0.8                                               20.088576960406105                                20.208881284599272                                20.088576960406105                                20.208881284599272
1                                                 0.8099999999999999                                20.08788648571435                                 20.207764634485507                                20.08788648571435                                 20.207764634485507
1                                                 0.82                                              20.087200465294956                                20.206663821920873                                20.087200465294956                                20.206663821920873
1                                                 0.83                                              20.08651866295078                                 20.205577515722897                                20.08651866295078                                 20.205577515722897
1                                                 0.84                                              20.085841951001328                                20.204506615328516                                20.085841951001328                                20.204506615328516
1                                                 0.85                                              20.085169550187597                                20.203451162258833                                20.085169550187597                                20.203451162258833
1                                                 0.86                                              20.08450153284592                                 20.202415999866517                                20.08450153284592                                 20.202415999866517
1                                                 0.87                                              20.083837135445037                                20.201394272103187                                20.083837135445037                                20.201394272103187
1                                                 0.88                                              20.083176494802828                                20.200388138331007                                20.083176494802828                                20.200388138331007
1                                                 0.89                                              20.08251984197693                                 20.199403894142186                                20.08251984197693                                 20.199403894142186
1                                                 0.9                                               20.081866427008205                                20.19843329681813                                 20.081866427008205                                20.19843329681813
1                                                 0.91                                              20.08121660170981                                 20.197479608435167                                20.08121660170981                                 20.197479608435167
1                                                 0.92                                              20.080570465209593                                20.19653924690555                                 20.080570465209593                                20.19653924690555
1                                                 0.93                                              20.07992727385914                                 20.195612775917173                                20.07992727385914                                 20.195612775917173
1                                                 0.94                                              20.079286856464794                                20.19470096355657                                 20.079286856464794                                20.19470096355657
1                                                 0.95                                              20.078648862348537                                20.19380039274589                                 20.078648862348537                                20.19380039274589
1                                                 0.96                                              20.078013132152943                                20.192909422453607                                20.078013132152943                                20.192909422453607
1                                                 0.97                                              20.077379565582547                                20.192027746405135                                20.077379565582547                                20.192027746405135
1                                                 0.98                                              20.076748652790545                                20.191154891353133                                20.076748652790545                                20.191154891353133
1                                                 0.99                                              20.076121094928016                                20.19029585534983                                 20.076121094928016                                20.19029585534983
1                                                 1                                                 20.075495510871285                                20.189445228934066                                20.075495510871285                                20.189445228934066
2                                                 0.1                                               20.00001228393431                                 20.58021153025371                                 20.00001228393431                                 20.58021153025371
2                                                 0.11                                              20.000010451387432                                20.549120070229982                                20.000010451387432                                20.549120070229982
2                                                 0.12000000000000001                               20.000008971540133                                20.521613564733446                                20.000008971540133                                20.521613564733446
2                                                 0.13                                              20.00000774651132                                 20.49721269068764                                 20.00000774651132                                 20.49721269068764
2                                                 0.14                                              20.00000671879237                                 20.475321695541144                                20.00000671879237                                 20.475321695541144
2                                                 0.15000000000000002                               20.000005848312846                                20.45584070965476                                 20.000005848312846                                20.45584070965476
2                                                 0.16                                              20.000005105819227                                20.438010071053622                                20.000005105819227                                20.438010071053622
2                                                 0.17                                              20.000004469201258                                20.421406233395405                                20.000004469201258                                20.421406233395405
2                                                 0.18                                              20.00000392125765                                 20.40581710670832                                 20.00000392125765                                 20.40581710670832
2                                                 0.19                                              20.000003504851353                                20.391163826073324                                20.000003504851353                                20.391163826073324
2                                                 0.2                                               20.00000323203728                                 20.37767531734564                                 20.00000323203728                                 20.37767531734564
2                                                 0.21000000000000002                               20.00000299255402                                 20.36542297075092                                 20.00000299255402                                 20.36542297075092
2                                                 0.22                                              20.000002779190165                                20.35418100635128                                 20.000002779190165                                20.35418100635128
2                                                 0.23                                              20.00000259153498                                 20.3438134166689                                  20.00000259153498                                 20.3438134166689
2                                                 0.24000000000000002                               20.00000242233406                                 20.334518011229314                                20.00000242233406                                 20.334518011229314
2                                                 0.25                                              20.00000226909855                                 20.325974783435456                                20.00000226909855                                 20.325974783435456
2                                                 0.26                                              20.0000021298941                                  20.31792154771073                                 20.0000021298941                                  20.31792154771073
2                                                 0.27                                              20.000002002948712                                20.31038143314873                                 20.000002002948712                                20.31038143314873